# vtk DataFile Version 4.0
vtk paraview fie
ASCII
DATASET UNSTRUCTURED_GRID
POINTS 2223 float
33.002600 -48.745800 -41.845800
22.833200 -17.573800 -35.430500
0.101288 -94.801200 9.042520
88.845800 -31.825700 -35.608500
83.848900 -28.747900 -34.507100
36.639300 -66.586300 13.039900
47.880600 -71.971900 -54.983700
43.718600 -52.787400 -44.955900
41.379700 -88.636000 -59.471500
4.529180 -88.905900 -47.938000
20.517100 -103.078000 -33.979500
4.660950 -102.603000 -33.534100
42.758300 -72.450700 -30.825600
-24.873500 -68.279200 -36.798300
-5.395240 -100.500000 -33.127600
-26.604000 -74.298500 -15.749100
7.941730 -103.762000 -19.310500
41.078700 -69.253900 -18.712400
44.574100 -92.604900 11.759100
14.965300 -100.318000 3.410600
48.743400 -45.857400 27.668000
40.944500 -53.555600 12.534500
39.185000 -62.409300 -23.301500
15.166200 -32.153900 -44.387700
16.522700 -44.376200 -47.416800
81.896300 -14.372100 -0.925254
66.688000 -11.968300 -31.392400
64.198200 -37.281300 -41.843600
64.694200 -17.262600 -32.372500
94.063000 -26.397600 -3.372110
98.512200 -40.347400 5.488380
100.623000 -40.167900 -29.448700
104.842000 -45.350400 -32.307700
96.209600 -33.913200 13.069200
53.609300 -10.445400 27.716900
73.882500 -12.286000 13.870800
79.633900 -8.804420 14.383500
108.365000 -48.870600 -11.659800
55.724700 -76.546300 2.841060
52.610700 -72.626400 10.566200
62.883500 -54.855000 37.270700
89.812100 -90.743600 0.215354
71.547600 -90.457600 5.737380
54.732000 -94.415200 2.853900
82.362900 -89.189600 -5.380150
96.286200 -81.594300 -13.937600
103.969000 -78.531200 -7.772510
93.136500 -88.813800 -19.468900
94.764800 -87.457300 -25.482100
102.342000 -71.689800 -27.153600
82.911100 -97.263200 -17.412300
71.074600 -98.730300 -24.552200
75.216900 -104.644000 -24.350400
67.525100 -108.141000 -42.613400
55.625100 -86.895400 -40.981600
52.556700 -75.138900 -55.603300
83.135300 -98.652500 -50.926200
69.516500 -107.526000 -37.776600
-9.695330 -73.185600 -49.068200
-5.480130 -53.988800 -45.644100
-3.189040 -93.698900 -46.906500
12.250200 -77.985800 -49.626700
14.494000 -68.728000 -48.434300
7.661710 -40.982800 -44.243200
44.881800 -54.911000 -50.278400
32.138400 -52.343200 -50.210200
37.840400 -53.296700 -44.523200
31.762700 -64.639500 -50.707800
38.167200 -76.701300 -51.975300
43.699600 -88.460700 -54.754200
45.640900 -95.366200 -59.545000
18.471500 -83.817700 -53.299200
9.120180 -89.161100 -50.696300
7.726270 -95.239000 -49.481600
27.243500 -101.106000 -52.412300
35.683300 -107.800000 -45.837300
27.552500 -85.855600 -51.878600
40.215700 -65.644600 -35.796700
47.569300 -70.982000 -29.633800
36.617500 -106.642000 -34.631100
29.743000 -103.993000 -37.853800
31.519200 -65.302900 -15.514700
37.328300 -105.507000 -20.321000
44.875700 -73.049200 -17.046300
40.282300 -59.270000 -16.328400
34.975700 -48.661000 -18.770100
35.905400 -48.974500 -30.554700
47.592800 -57.923100 -37.501600
40.511600 -41.422000 -42.157500
45.786700 -42.172200 -39.632400
39.981800 -38.032400 -34.564800
33.148800 -38.031800 -26.535700
31.619300 -44.224400 -34.203700
31.580400 -37.337500 -34.318200
33.871000 -53.407400 -38.118500
34.451700 -49.540100 -24.169700
-20.555600 -52.296200 -33.347200
-13.914000 -48.001100 -37.737300
-7.479710 -46.491600 -38.852100
-1.231650 -37.049600 -41.143200
-6.557470 -37.936200 -31.853900
20.752800 -36.449500 -28.204300
-26.342900 -54.368100 -24.879400
-21.719500 -81.113600 -39.881200
-25.957200 -83.395600 -25.678200
-24.162000 -79.238700 -20.708800
-15.777100 -91.734500 -17.592500
-6.787930 -99.919100 -20.612200
18.258400 -103.578000 -15.755500
16.291300 -100.276000 -42.402400
-0.610003 -100.428000 -30.648300
-10.786600 -96.896600 -32.521800
21.361200 -104.283000 -41.079800
-5.661320 -94.396800 -1.571420
-14.980900 -79.391500 10.658400
-22.598000 -71.069400 -1.099720
-25.855000 -69.705200 -12.942300
7.175350 -101.487000 -5.597590
25.453300 -102.335000 -0.485445
-2.239610 -90.353000 11.407900
13.513100 -105.227000 -5.421890
26.395200 -103.527000 -13.986200
32.891400 -104.713000 -7.448420
35.898600 -69.804000 -12.286800
44.911300 -74.769100 -11.486400
48.262800 -78.539900 -10.351000
46.892300 -102.752000 -14.349000
45.996900 -77.830600 -3.984040
47.633200 -74.489700 5.537370
43.115100 -73.890000 -6.540850
34.199700 -99.084800 0.414270
28.338700 -104.745000 -4.997480
21.454100 -93.127300 25.206200
23.382300 -93.089100 30.703700
37.653600 -89.438200 24.859800
41.780600 -66.734300 17.997100
43.123900 -81.119400 42.226200
39.344500 -74.989600 51.240500
19.970500 -78.475300 42.848200
34.598300 -79.673900 43.313400
11.842000 -97.045100 18.753600
15.285500 -90.652200 24.662400
17.495100 -83.000400 39.299500
44.087900 -64.794200 52.963600
45.238100 -42.260500 29.937800
48.236100 -48.177700 47.243100
42.243400 -52.879000 32.949300
33.974700 -48.758700 24.852000
37.747300 -47.808500 16.538200
33.908800 -61.340300 13.966100
48.386200 -63.611600 13.123400
47.096000 -45.318900 21.286500
39.165500 -62.463800 2.483970
44.383200 -66.290500 7.999730
42.872500 -66.638900 -8.005390
31.538000 -65.766200 6.276750
33.211300 -53.724200 4.394700
25.303000 -36.407800 19.647700
29.666700 -43.596500 21.957700
24.685600 -42.360200 23.816000
26.756700 -56.738700 15.271100
25.280500 -55.926100 7.088260
23.573700 -46.041800 -15.411600
22.612500 -46.647700 10.295600
15.568200 -39.071100 8.229560
21.951700 -40.033300 -8.965950
20.296600 -39.965200 -15.162300
39.665000 -30.642000 26.643200
45.051500 -34.432900 31.728200
12.787900 -30.732500 -1.218380
13.582900 -34.237500 10.045000
8.489810 -27.595400 -28.336200
15.373200 -24.778600 -32.253700
22.850500 -30.844900 -21.720200
17.310400 -35.686700 0.832071
20.415500 -34.685900 -4.075000
38.702700 -30.879500 -30.983300
20.888500 -31.732700 -32.606600
4.895770 -30.996500 -34.987900
33.304300 -33.252000 -40.234400
38.716400 -33.505700 -42.118000
47.216700 -32.133900 -41.366000
29.046800 -29.053100 -43.439800
17.235700 -26.511700 -42.571300
24.858400 -25.615900 -36.465100
43.429300 -28.660900 -34.618800
46.100700 -24.366900 -36.740200
33.095300 -17.995300 -30.401300
20.829300 -13.197800 -31.608800
17.336200 -15.013200 -27.169200
38.795500 -8.935490 -33.297400
20.596400 -20.939100 -11.760300
13.701900 -22.444300 -8.609840
30.733300 -24.073100 -25.767500
13.562400 -23.024000 -17.916900
12.601000 -19.647000 -24.933800
15.678300 -15.638400 -8.031190
18.849600 -23.597500 -0.594502
19.587100 -14.225400 -4.425380
62.613600 5.933650 -8.329280
76.608100 -2.673190 -3.496990
68.835200 4.483630 -11.615000
77.781700 -6.334930 -24.000500
84.395200 -6.636910 -15.252900
72.011600 -10.983000 -22.395900
68.647200 0.135428 -20.811700
56.314300 -8.815620 -38.275100
51.821100 -23.912600 -40.689600
58.963900 -18.993800 -40.427900
49.925900 -29.238300 -45.916600
49.449100 -37.365100 -38.990700
50.406300 -36.987300 -44.434900
77.712800 -36.786400 -39.064500
52.043900 -27.252800 -36.896200
49.033600 -19.618100 -36.761400
56.892700 -11.806200 -31.121700
53.191800 -17.287300 -33.592600
84.981900 -16.079800 -26.827200
79.931900 -11.945000 -18.964100
90.660700 -20.888600 -27.280300
87.052800 -30.735700 -27.549700
99.136800 -36.069700 -16.344200
95.329300 -36.198000 -0.785405
95.634100 -19.710000 -8.634430
96.977300 -27.799300 -17.002400
93.030300 -14.918200 -17.171600
100.090000 -39.376500 -3.081410
101.918000 -33.368900 -5.439760
104.545000 -38.353200 -12.032300
104.450000 -36.406600 -20.034300
92.562600 -27.192500 -24.571300
91.204900 -35.301500 -30.341600
94.056300 -37.829200 -34.930800
97.346100 -39.851200 -25.493800
67.562000 -40.046200 34.006600
54.856300 -40.051800 34.279100
49.268500 -29.763100 25.874900
56.107500 -29.209500 25.607600
64.479900 -35.028000 28.794700
59.220000 -38.141300 31.218400
70.191100 -36.424100 24.460700
78.746900 -27.825600 24.269600
65.546700 -8.237670 24.242100
53.060800 -20.058800 24.502100
49.452900 -24.434500 22.805500
72.477800 -11.839700 19.487200
72.390600 -1.351340 5.741860
73.722900 1.116250 1.542930
80.913000 -2.793990 1.319890
82.021900 -15.849400 6.873690
95.072300 -23.144800 0.945208
85.732200 -18.318100 2.842200
84.306300 -9.701730 6.166500
98.306800 -32.562200 8.065100
104.235000 -45.053600 -10.426000
103.999000 -45.778700 0.164168
107.685000 -56.435800 -16.443600
101.594000 -62.232300 -15.923800
96.083800 -55.833600 11.217100
92.734600 -47.553900 9.406200
103.285000 -55.088900 -5.731760
86.360700 -56.243200 11.731600
89.315200 -67.244100 10.168700
84.908700 -74.519300 4.518030
52.069700 -71.903100 4.125390
75.816500 -68.184100 15.601100
92.288500 -51.872700 16.176000
65.994800 -42.320800 27.365300
58.520600 -73.281300 25.928100
55.292800 -43.472200 38.217600
50.489100 -58.491200 50.143100
58.059400 -64.197300 32.426400
59.477000 -53.842000 32.734100
67.828100 -50.725600 29.292100
83.103900 -40.749900 20.108900
82.143600 -50.038000 20.583800
78.747200 -63.938500 18.190700
80.051100 -56.495200 18.074400
84.253700 -61.582400 18.214800
72.808700 -78.160300 18.849700
78.828400 -79.504700 12.698600
73.109900 -83.988500 5.696650
86.528900 -87.898200 5.348860
59.265200 -89.028900 12.433100
65.638300 -78.882800 12.722000
49.325500 -82.940300 23.276400
52.892600 -79.411100 9.433340
65.937900 -84.073000 11.841500
66.275100 -85.868800 6.507940
73.909600 -97.211300 -3.286710
59.928500 -94.470900 -2.858100
78.247100 -86.292100 -1.728790
52.328500 -84.612200 1.241090
58.845200 -84.804000 -2.703110
57.091600 -99.295000 -4.842230
62.854100 -99.133600 -15.348200
55.497700 -81.471400 -14.934500
65.176300 -94.258700 -9.409990
77.846900 -101.429000 -15.247100
88.346100 -92.576000 -5.083210
91.590900 -87.714000 -7.715390
103.032000 -76.742900 -15.737900
97.819400 -78.064600 -7.692620
100.562000 -80.611400 -3.424720
98.833700 -84.106100 -9.081100
100.068000 -86.773400 -16.942300
98.156900 -92.126600 -18.204800
91.203600 -96.872000 -27.401000
102.901000 -85.128500 -28.948200
107.129000 -64.181800 -38.057000
100.291000 -61.523500 -41.884200
98.778400 -83.848300 -22.446500
102.410000 -67.241800 -23.515800
102.843000 -50.559100 -26.647300
[...]
POINT_DATA 2223
SCALARS time_sequence float 1
LOOKUP_TABLE default
20.948217
-84.000000
-84.000000
-84.000000
-84.000000
26.940689
-84.000000
19.588936
-84.000000
-84.000000
-84.000000
-84.000000
26.512531
-84.000000
-84.000000
-84.000000
-84.000000
26.864338
18.728815
-84.000000
22.168037
26.948826
26.922567
-84.000000
-84.000000
-84.000000
-84.000000
-84.000000
-84.000000
-84.000000
-84.000000
-84.000000
-84.000000
-84.000000
-84.000000
-84.000000
-84.000000
-84.000000
26.960752
26.950241
23.244854
-84.000000
19.485863
24.092827
22.991465
-84.000000
-84.000000
-84.000000
-84.000000
-84.000000
-84.000000
19.253868
-84.000000
-84.000000
18.499817
-84.000000
-84.000000
-84.000000
-84.000000
-84.000000
-84.000000
-84.000000
-84.000000
-84.000000
21.869640
22.393028
20.131721
-84.000000
-84.000000
-84.000000
-84.000000
-84.000000
-84.000000
-84.000000
-84.000000
-84.000000
-84.000000
25.587257
26.714170
-84.000000
-84.000000
26.662878
-84.000000
26.869814
26.682846
26.920692
26.746199
24.492363
20.467798
19.461922
22.731407
25.928650
25.190977
25.130919
23.476984
26.958714
-84.000000
-84.000000
-84.000000
-84.000000
-84.000000
23.132410
-84.000000
-84.000000
-84.000000
-84.000000
-84.000000
-84.000000
-84.000000
-84.000000
-84.000000
-84.000000
-84.000000
-84.000000
-84.000000
-84.000000
-84.000000
-84.000000
-84.000000
-84.000000
-84.000000
-84.000000
-84.000000
26.541023
26.806231
26.912611
4.276691
26.794226
26.788340
26.620230
-84.000000
-84.000000
-84.000000
-84.000000
-84.000000
26.928215
-84.000000
-84.000000
-84.000000
-84.000000
-84.000000
-84.000000
-84.000000
-84.000000
20.704683
-84.000000
20.813299
24.549450
26.834589
26.958084
26.950661
25.438065
26.488552
26.753477
26.466703
26.779509
26.758764
21.616806
24.741648
23.403801
26.891712
26.885183
26.961782
26.843243
25.607206
26.846355
26.492462
19.780123
20.226091
22.654108
23.259663
-84.000000
21.244158
23.325859
25.736109
25.979439
19.367779
20.121168
-84.000000
21.139399
18.873716
22.923664
18.562521
23.046539
18.552589
20.819321
-84.000000
-84.000000
-84.000000
-84.000000
-84.000000
18.663439
18.607683
18.488184
18.989042
-44.746250
11.282155
18.759855
-84.000000
-84.000000
-84.000000
-84.000000
-84.000000
-84.000000
-84.000000
-84.000000
-84.000000
-84.000000
-84.000000
-84.000000
19.733936
-30.155643
-84.000000
-84.000000
-84.000000
-84.000000
-84.000000
-84.000000
-84.000000
-84.000000
-84.000000
-84.000000
-84.000000
-84.000000
-84.000000
-84.000000
-84.000000
-84.000000
-84.000000
-84.000000
-84.000000
-84.000000
-84.000000
-84.000000
-84.000000
11.908123
22.414949
-84.000000
-84.000000
-34.718170
-84.000000
-84.000000
-84.000000
-84.000000
-84.000000
-84.000000
-84.000000
-84.000000
-84.000000
-84.000000
-84.000000
-84.000000
-84.000000
-84.000000
-84.000000
-84.000000
-84.000000
-84.000000
-84.000000
-84.000000
-84.000000
-84.000000
-84.000000
-84.000000
26.913174
18.708855
-84.000000
23.207443
24.143385
23.112160
-84.000000
20.522257
18.602783
20.848818
-84.000000
-84.000000
22.294544
-84.000000
-84.000000
18.587009
18.765125
20.990068
-84.000000
24.841209
24.790161
21.232868
26.953028
23.534054
23.835829
18.511490
25.192574
18.482801
26.943327
26.692265
22.261347
20.894331
26.766039
23.239292
-84.000000
-84.000000
-84.000000
-84.000000
-84.000000
-84.000000
-84.000000
-84.000000
-84.000000
-84.000000
-84.000000
-84.000000
-84.000000
-84.000000
-84.000000
-84.000000
-84.000000
-84.000000
-84.000000
-84.000000
-84.000000
-84.000000
-84.000000
-84.000000
-84.000000
23.197081
-84.000000
23.105148
20.234322
18.725456
22.588301
-84.000000
18.452263
21.762022
21.648636
-80.053345
-84.000000
-60.207989
19.011295
20.051531
-84.000000
-84.000000
-84.000000
-84.000000
-84.000000
-84.000000
-84.000000
-84.000000
-84.000000
-84.000000
-84.000000
21.832331
-78.125595
-84.000000
-84.000000
-84.000000
1.295596
-84.000000
-84.000000
-84.000000
-84.000000
-84.000000
-84.000000
-84.000000
-84.000000
-84.000000
-84.000000
-84.000000
-84.000000
-84.000000
-84.000000
-84.000000
-84.000000
-84.000000
-84.000000
-84.000000
-84.000000
-84.000000
-84.000000
-84.000000
-84.000000
-84.000000
-84.000000
-84.000000
-84.000000
-84.000000
-84.000000
-84.000000
-84.000000
-84.000000
-84.000000
-84.000000
-84.000000
23.007816
-84.000000
-84.000000
22.635561
22.069866
18.900877
21.631847
18.544386
22.269442
-84.000000
19.588854
-84.000000
19.867014
-84.000000
-84.000000
-84.000000
-84.000000
-84.000000
-84.000000
-84.000000
-84.000000
-84.000000
-84.000000
-84.000000
-84.000000
-84.000000
-84.000000
-84.000000
-84.000000
-84.000000
-84.000000
-84.000000
-84.000000
-84.000000
-84.000000
19.446594
25.924955
23.235428
24.052040
-84.000000
24.782871
-84.000000
-84.000000
-84.000000
-84.000000
-84.000000
-84.000000
-84.000000
26.892590
-84.000000
26.887081
-84.000000
-84.000000
-84.000000
26.907494
26.934275
-84.000000
26.957226
26.936924
26.908035
26.909332
26.940132
26.916357
26.856649
26.361170
25.102310
20.739054
19.710802
26.729301
25.575853
26.550224
26.062340
26.544188
20.736412
1.597947
18.562889
-84.000000
20.168695
26.882296
26.925167
26.954685
-84.000000
-84.000000
-84.000000
-84.000000
-84.000000
-84.000000
-84.000000
-84.000000
-84.000000
-84.000000
-84.000000
-84.000000
-84.000000
-84.000000
-84.000000
-84.000000
-84.000000
-84.000000
-84.000000
-84.000000
-84.000000
-84.000000
-84.000000
-84.000000
-84.000000
-84.000000
-84.000000
-84.000000
-84.000000
-84.000000
-84.000000
-84.000000
-84.000000
-84.000000
-84.000000
-84.000000
-84.000000
-84.000000
-84.000000
-84.000000
-84.000000
-84.000000
-84.000000
-84.000000
-84.000000
-84.000000
-84.000000
-84.000000
-84.000000
-84.000000
-84.000000
-84.000000
-84.000000
-84.000000
-84.000000
-84.000000
-84.000000
-84.000000
-84.000000
-84.000000
-84.000000
-84.000000
-84.000000
-84.000000
-84.000000
26.916292
21.104288
-84.000000
-84.000000
-84.000000
-84.000000
18.635176
19.830666
-84.000000
-84.000000
-84.000000
-84.000000
-84.000000
-84.000000
-84.000000
-84.000000
-84.000000
-84.000000
-84.000000
-84.000000
-84.000000
-84.000000
-84.000000
-84.000000
-84.000000
18.588383
21.410145
-84.000000
-84.000000
-71.131279
-84.000000
-84.000000
-84.000000
-84.000000
-84.000000
-84.000000
-84.000000
-84.000000
-84.000000
-84.000000
-84.000000
-84.000000
-84.000000
-84.000000
-84.000000
18.770256
18.775469
24.102911
20.906958
25.638885
24.718979
25.862045
26.927370
25.956455
26.931877
26.371828
26.157143
26.931536
25.254597
26.563854
26.141439
21.770401
21.541857
26.962950
26.948925
26.591814
26.935425
26.584738
26.909822
26.484459
26.752644
26.949001
26.574371
26.932764
26.678728
26.451439
26.284380
26.802706
26.637754
26.676947
26.618002
26.349285
26.401730
26.815479
26.730381
26.727739
26.949184
26.841499
26.955841
26.880642
26.962158
26.773079
26.954409
26.933149
26.765253
26.724155
26.619217
26.726336
26.709410
26.815479
-84.000000
-84.000000
-84.000000
-84.000000
26.838274
25.158615
26.941553
26.633801
19.204559
21.684750
-84.000000
-81.105484
-84.000000
-84.000000
-84.000000
20.446022
24.008673
24.217113
25.909779
23.950325
23.170216
23.092371
18.596926
22.653954
20.750666
22.164059
18.702171
-84.000000
21.878351
19.334476
3.425906
21.481062
-84.000000
21.484322
7.177444
19.062571
19.701025
24.449850
25.235378
26.213625
21.419758
19.960215
18.548128
20.989767
-84.000000
-84.000000
-84.000000
18.568892
18.569960
20.609114
19.224421
22.652504
20.055271
-82.655037
-84.000000
-84.000000
18.591469
-66.382324
-84.000000
19.146400
-84.000000
-84.000000
-84.000000
-84.000000
-84.000000
-84.000000
-84.000000
-84.000000
-84.000000
-84.000000
-84.000000
-84.000000
-84.000000
-84.000000
23.108368
-84.000000
-70.629539
-84.000000
-84.000000
-84.000000
-84.000000
-84.000000
-84.000000
-84.000000
-84.000000
-84.000000
-84.000000
-84.000000
-84.000000
-84.000000
-84.000000
-84.000000
-84.000000
-84.000000
-84.000000
-84.000000
-84.000000
-84.000000
-84.000000
-84.000000
-84.000000
-84.000000
-84.000000
-84.000000
-84.000000
-84.000000
-84.000000
-84.000000
-84.000000
-84.000000
-84.000000
-84.000000
-84.000000
-84.000000
-84.000000
-84.000000
-84.000000
-84.000000
-84.000000
-84.000000
-84.000000
-84.000000
-84.000000
-84.000000
-84.000000
-84.000000
-37.768143
-84.000000
-84.000000
-84.000000
-84.000000
-84.000000
-84.000000
-84.000000
-54.113308
-84.000000
-84.000000
-84.000000
20.492874
22.233675
-84.000000
-84.000000
-84.000000
-84.000000
-84.000000
-84.000000
-84.000000
-84.000000
-84.000000
-84.000000
-84.000000
-84.000000
-84.000000
-84.000000
-84.000000
-84.000000
-84.000000
-84.000000
-84.000000
-84.000000
-84.000000
-84.000000
-84.000000
-84.000000
-84.000000
-84.000000
-84.000000
-84.000000
-84.000000
-84.000000
-84.000000
-84.000000
-84.000000
-84.000000
-84.000000
-84.000000
-84.000000
-84.000000
-84.000000
-84.000000
-84.000000
-84.000000
-84.000000
-84.000000
-84.000000
-84.000000
-84.000000
-84.000000
-84.000000
-84.000000
-84.000000
-24.492304
-84.000000
-84.000000
-84.000000
-84.000000
-84.000000
-84.000000
-84.000000
-84.000000
19.723221
-84.000000
-84.000000
-84.000000
-84.000000
-84.000000
18.868134
-84.000000
-84.000000
-84.000000
-84.000000
-84.000000
19.942793
19.552189
-84.000000
21.781614
20.207176
-84.000000
18.631079
-84.000000
-84.000000
-84.000000
-84.000000
-84.000000
-84.000000
-84.000000
-84.000000
-84.000000
-84.000000
-84.000000
-84.000000
-84.000000
-84.000000
-84.000000
-84.000000
-84.000000
-84.000000
-84.000000
-84.000000
-84.000000
-84.000000
-84.000000
-84.000000
-84.000000
-84.000000
-84.000000
-84.000000
-84.000000
-84.000000
-84.000000
-84.000000
-84.000000
-84.000000
-84.000000
-84.000000
-84.000000
-84.000000
-84.000000
-84.000000
-84.000000
-84.000000
-84.000000
-84.000000
-84.000000
-84.000000
-84.000000
-84.000000
-84.000000
-84.000000
-84.000000
-84.000000
-84.000000
-84.000000
-84.000000
-84.000000
-84.000000
-84.000000
-84.000000
-84.000000
-84.000000
-50.841206
18.875656
26.611725
-84.000000
26.869230
25.379629
26.710968
26.739307
26.904537
26.961052
26.567217
24.512049
21.016100
20.949936
22.477631
-84.000000
-84.000000
-84.000000
19.276520
20.618174
21.414446
22.917923
21.929279
26.009140
24.590017
21.850727
26.866699
25.310427
23.787897
20.984957
19.602890
21.286692
-84.000000
-84.000000
-70.731102
20.554802
19.537468
23.411825
18.610832
-0.853592
22.027773
-84.000000
-84.000000
-84.000000
-84.000000
-84.000000
19.271105
21.138952
19.262318
20.927225
21.137499
19.427591
19.574966
23.160004
21.016109
18.523012
9.257268
-84.000000
-84.000000
18.508825
18.521824
21.823402
-84.000000
26.065351
25.345844
26.709028
23.704439
26.652597
22.410654
24.971598
25.216213
26.045889
26.916292
26.459560
23.244827
24.988638
25.628473
22.157379
18.548388
22.547100
23.562721
25.389324
26.148336
26.952227
26.963646
18.644987
25.508135
25.073656
26.581600
26.850943
19.879391
19.527481
21.176374
-84.000000
-84.000000
-84.000000
22.102802
-72.443466
14.404052
-9.593494
-84.000000
18.650507
-84.000000
-84.000000
-84.000000
-84.000000
-84.000000
-84.000000
-84.000000
-84.000000
-84.000000
-84.000000
-84.000000
-84.000000
-84.000000
-84.000000
-84.000000
-84.000000
-84.000000
-84.000000
-84.000000
-84.000000
-84.000000
-84.000000
-84.000000
-84.000000
-84.000000
-84.000000
-84.000000
-84.000000
-84.000000
-84.000000
-84.000000
-84.000000
-84.000000
-84.000000
-84.000000
-84.000000
-84.000000
-84.000000
-84.000000
-84.000000
-84.000000
-84.000000
-84.000000
-84.000000
-84.000000
-84.000000
-84.000000
-84.000000
-84.000000
-84.000000
-84.000000
-84.000000
-84.000000
-84.000000
-84.000000
-84.000000
-84.000000
21.408989
26.753437
25.388287
23.468569
21.052973
18.532301
-61.517807
22.256178
23.068584
19.298347
18.558056
18.606277
19.048603
-57.950287
19.367779
21.311852
23.569704
24.764164
26.425261
25.798018
24.951309
18.610819
18.586401
19.276695
24.920425
26.599915
19.739662
21.515785
-84.000000
22.835938
-84.000000
-84.000000
18.506464
-51.826729
-84.000000
22.200727
-84.000000
-56.405640
-84.000000
-84.000000
-84.000000
-84.000000
-84.000000
-84.000000
-84.000000
-84.000000
-84.000000
-84.000000
-84.000000
-84.000000
-84.000000
-84.000000
-84.000000
-84.000000
-84.000000
-84.000000
-84.000000
-84.000000
-84.000000
-84.000000
-84.000000
-84.000000
-84.000000
-84.000000
-84.000000
-84.000000
-83.535789
19.417009
-81.182228
20.854542
-19.541456
-84.000000
-84.000000
-84.000000
0.612077
-84.000000
-75.671463
-84.000000
-84.000000
-84.000000
-84.000000
-84.000000
-84.000000
-84.000000
-84.000000
-84.000000
-84.000000
-84.000000
-84.000000
-84.000000
-84.000000
-84.000000
-84.000000
-84.000000
-84.000000
-84.000000
-84.000000
-84.000000
-84.000000
-84.000000
-84.000000
-84.000000
-84.000000
-84.000000
-84.000000
-84.000000
-84.000000
-84.000000
-84.000000
-84.000000
-84.000000
-84.000000
-84.000000
-84.000000
-84.000000
-84.000000
-84.000000
-84.000000
-84.000000
-84.000000
-84.000000
-84.000000
-84.000000
-84.000000
-84.000000
-60.259411
22.920755
-84.000000
21.160980
19.290876
21.456141
19.778587
18.481630
20.904610
9.457651
-83.377151
-84.000000
-84.000000
-84.000000
-84.000000
-84.000000
-84.000000
-84.000000
-84.000000
-84.000000
-84.000000
-84.000000
-84.000000
-84.000000
-84.000000
-84.000000
-84.000000
-84.000000
-84.000000
25.424637
26.578447
26.613245
26.679668
-84.000000
-84.000000
-84.000000
-84.000000
26.929132
26.815479
-84.000000
-84.000000
-84.000000
-84.000000
26.937160
26.725405
26.956602
26.496567
24.542526
25.508362
21.721525
19.468386
23.421659
24.152035
26.882296
26.443970
23.132410
25.813843
19.688286
18.844538
18.609507
23.010632
-84.000000
25.377735
26.962324
-84.000000
-84.000000
-84.000000
-84.000000
-84.000000
-84.000000
-84.000000
-84.000000
-84.000000
-84.000000
-84.000000
-84.000000
-84.000000
-84.000000
-84.000000
-84.000000
-84.000000
-84.000000
-84.000000
-84.000000
-84.000000
-84.000000
-84.000000
-84.000000
-84.000000
-84.000000
-84.000000
-84.000000
-84.000000
-84.000000
-84.000000
-84.000000
-84.000000
-84.000000
-84.000000
-84.000000
-84.000000
-84.000000
-84.000000
-84.000000
-84.000000
-84.000000
-84.000000
-84.000000
-84.000000
-84.000000
-84.000000
-84.000000
-84.000000
26.497540
-84.000000
19.176296
-84.000000
-84.000000
26.726452
23.008663
22.762844
-84.000000
-84.000000
-84.000000
-84.000000
-84.000000
-84.000000
-84.000000
-84.000000
-84.000000
-84.000000
-84.000000
-84.000000
-15.211782
-84.000000
-84.000000
-84.000000
-84.000000
-84.000000
-84.000000
-84.000000
-84.000000
-84.000000
-84.000000
-84.000000
-84.000000
-84.000000
-84.000000
-84.000000
21.388628
23.476984
-80.183052
21.026863
24.311892
22.132704
24.496868
21.938549
26.203453
26.684488
26.850204
26.036943
26.582373
25.982450
25.540401
25.746618
24.554625
24.358833
26.855768
26.771723
26.931044
26.961653
26.834795
26.662878
26.619217
26.722723
26.556917
26.962667
26.746214
26.367533
26.655954
26.477041
26.610968
26.352289
26.440811
26.380692
26.486284
26.681984
26.668623
26.930849
26.942793
26.295298
26.955097
26.924952
26.850756
26.914518
26.796686
26.949001
-84.000000
-84.000000
-84.000000
26.746201
26.499899
25.073519
26.055166
26.779966
20.368896
18.502981
-75.907974
-84.000000
19.608908
20.228596
20.700304
-84.000000
22.107897
19.342361
22.965052
21.501314
-35.241966
-84.000000
18.743765
18.781298
22.038740
18.490850
21.899542
20.427706
24.762503
24.618217
20.427706
20.424723
24.393465
24.017366
18.644295
19.589706
21.247099
22.903316
-84.000000
-84.000000
-84.000000
-84.000000
22.654341
18.505219
22.728512
23.086607
-84.000000
20.706757
19.825148
20.981277
-84.000000
-84.000000
-84.000000
22.435411
20.744686
-55.842442
-84.000000
-84.000000
-84.000000
-84.000000
-82.051216
-84.000000
-84.000000
-84.000000
-84.000000
-84.000000
22.680271
-84.000000
-84.000000
20.815741
23.244013
-84.000000
-84.000000
-84.000000
-84.000000
-84.000000
-84.000000
-84.000000
-84.000000
-84.000000
-84.000000
-84.000000
-84.000000
-84.000000
-84.000000
-84.000000
-84.000000
-84.000000
-84.000000
-84.000000
-84.000000
-84.000000
-84.000000
-84.000000
-84.000000
-84.000000
-84.000000
-84.000000
-84.000000
-84.000000
-84.000000
-84.000000
-84.000000
-84.000000
-84.000000
-84.000000
-84.000000
16.691109
-84.000000
-84.000000
-84.000000
-84.000000
20.303249
-84.000000
19.076595
-84.000000
-84.000000
-84.000000
-84.000000
-84.000000
-84.000000
-84.000000
-84.000000
-84.000000
-84.000000
-84.000000
-84.000000
-84.000000
-84.000000
-84.000000
-84.000000
-84.000000
-84.000000
-84.000000
-84.000000
-84.000000
-84.000000
-84.000000
-84.000000
-84.000000
-84.000000
-84.000000
-84.000000
-84.000000
-84.000000
-84.000000
-84.000000
-84.000000
-84.000000
-84.000000
-84.000000
-84.000000
-84.000000
-84.000000
-84.000000
-84.000000
-84.000000
-84.000000
-84.000000
-84.000000
22.748707
19.002941
-84.000000
-84.000000
-84.000000
-84.000000
-84.000000
-84.000000
-84.000000
-84.000000
-84.000000
21.378180
-84.000000
-84.000000
-84.000000
-84.000000
-84.000000
22.096346
18.705036
-84.000000
-84.000000
-84.000000
-84.000000
-84.000000
-84.000000
-84.000000
-84.000000
-84.000000
-84.000000
-84.000000
-84.000000
-84.000000
-84.000000
-84.000000
-84.000000
-84.000000
-84.000000
-84.000000
-84.000000
-84.000000
-84.000000
-84.000000
-84.000000
-84.000000
-84.000000
-84.000000
-84.000000
-84.000000
-84.000000
-84.000000
-84.000000
-84.000000
-84.000000
-84.000000
-84.000000
-84.000000
-84.000000
-84.000000
-84.000000
-84.000000
-84.000000
-84.000000
-84.000000
-84.000000
-84.000000
-84.000000
-84.000000
-84.000000
-84.000000
23.056805
-33.380020
26.848566
25.340019
21.794867
26.954859
26.874363
26.743179
26.938530
21.127859
25.657505
26.453798
19.039570
19.581785
-84.000000
-84.000000
22.528040
19.959480
21.834225
24.296797
24.270575
25.802029
26.174433
24.738459
25.151772
26.307873
22.392809
22.863350
18.459427
21.425327
18.473194
-84.000000
18.532068
22.096319
18.785826
-84.000000
-84.000000
23.765226
23.435373
18.529545
21.929581
18.573214
19.239246
-84.000000
-42.213005
15.976301
-84.000000
-84.000000
-84.000000
-84.000000
-84.000000
24.128000
19.143274
18.543676
21.797922
21.978775
24.461901
24.177773
25.703615
18.820822
22.989534
21.613274
18.521978
19.634731
23.330687
26.652597
20.668655
26.960201
26.897881
26.945467
26.857834
26.476032
26.140738
24.003448
22.516182
23.590321
20.758944
26.954321
26.952608
19.756809
23.806337
26.615290
26.733059
18.594408
25.431009
26.134140
26.953285
26.959732
23.120953
20.261738
18.504553
18.820009
23.394728
19.172304
-84.000000
20.951683
13.190540
-84.000000
-84.000000
-84.000000
-84.000000
-84.000000
-84.000000
-84.000000
-84.000000
-84.000000
-84.000000
-84.000000
-84.000000
-84.000000
-84.000000
-84.000000
-84.000000
-84.000000
-84.000000
-84.000000
-84.000000
-84.000000
-84.000000
-84.000000
-84.000000
-84.000000
-84.000000
-84.000000
-84.000000
-84.000000
-84.000000
-84.000000
-84.000000
-84.000000
-84.000000
-84.000000
-84.000000
-84.000000
-84.000000
25.776281
18.498636
19.516329
19.218632
20.537384
19.954933
19.025394
-84.000000
-84.000000
23.580353
21.478924
19.265217
22.791464
23.654148
26.953785
26.571196
24.400341
24.157784
-84.000000
-82.106255
-84.000000
19.691744
20.106577
22.376415
22.181948
-84.000000
-84.000000
-84.000000
-84.000000
-84.000000
23.925930
-84.000000
-84.000000
-84.000000
-84.000000
-84.000000
-84.000000
-84.000000
-84.000000
-84.000000
-84.000000
-84.000000
-84.000000
-84.000000
-84.000000
-84.000000
-84.000000
-84.000000
-84.000000
-84.000000
-84.000000
-84.000000
-10.364910
22.144487
20.676662
-84.000000
-53.010059
-84.000000
-84.000000
-84.000000
-84.000000
-84.000000
-84.000000
-84.000000
-84.000000
-84.000000
-84.000000
-84.000000
-84.000000
-84.000000
-84.000000
-84.000000
-84.000000
-84.000000
-84.000000
-84.000000
-84.000000
-84.000000
-84.000000
-84.000000
-84.000000
-84.000000
-84.000000
-84.000000
-84.000000
-84.000000
-84.000000
-84.000000
-84.000000
-84.000000
-84.000000
-84.000000
-84.000000
-84.000000
-84.000000
-84.000000
-84.000000
-84.000000
-84.000000
-84.000000
-84.000000
-84.000000
-84.000000
-84.000000
-84.000000
-84.000000
-84.000000
-84.000000
-84.000000